190
Lattice="12.419789131933351 0.0 0.0 0.0 12.419789131933351 0.0 0.0 0.0 12.419789131933351" Properties=species:S:1:pos:R:3 #=T CELLabcABC:=T 23.47000=T 90.00000=T Traj:=T positions=T Step:=T 15209=T Bead:=T 5=T pbc="T T T"
Cl       5.04305882      11.44218715       0.49710431 
O       9.80036194       9.89757179       1.93036967 
O       1.97658272      15.84726992       5.11043366 
O       1.96485086      13.29836618       5.47428533 
O       1.69717715      12.19675364      -0.14095376 
O       0.55150849       5.37665213      -1.19403017 
O      10.57184939      14.30394576      -1.00356341 
O       7.49859983      10.19354061       3.31775590 
O      -0.46995963      15.52500100      -4.85927557 
O      10.54914769      16.57806365      -2.72464350 
O       5.21455457       6.33250493       5.84693192 
O       8.09788243      10.08490053      -0.27556692 
O      10.28619954       6.12310950       0.53891407 
O       6.53142264      15.01578965       3.84979067 
O       2.66258689      10.23344057      -5.37300081 
O       3.88461582      13.18995364       3.04419774 
O       8.99839388       6.10517040       3.83734442 
O       4.72859526       5.34484858       0.74836241 
O       6.33631500      12.44825887       4.58555866 
O       9.38162401      13.28779851       6.69409171 
O       2.74099507       6.24915951       2.64768526 
O       1.53165052       7.63761468      -2.40632753 
O       1.56890989       7.71090572      -5.28341111 
O       6.71224249      11.62745209      -5.20239407 
O      11.12135759      12.00006217       2.67166757 
O       8.29827655       7.37863535      -1.00887635 
O      -0.70645158       9.55876079       5.14799995 
O       3.66604975      10.58703678       4.41884138 
O       0.21925452      15.29448612       3.14611727 
O      -0.97584511       5.76602072      -5.70976918 
O       1.29926235      13.88505437      -2.66012092 
O       5.79433170       8.47811214       1.68400064 
O       6.98175245       6.86993730      -4.62453256 
O       2.89555186      12.78863517      -4.21119224 
O       9.22546382      10.05937831       5.79105080 
O       1.94290588      16.35226374      -2.97254714 
O       5.33796928      13.99800724      -4.75841969 
O       4.02989613       8.09519421      -0.66348239 
O      -0.36180904       9.22927389      -1.04353746 
O      -0.80438111      11.82600997      -0.16346972 
O       8.43106299      16.73755766      -4.72565833 
O       0.37449871       5.81909720       3.56148963 
O      -0.32254727      12.10032009       5.41253035 
O       5.18550274       9.45687301      -4.45119527 
O       1.38824349       9.60091505       3.38334741 
O       8.30102298      10.01801253      -3.40245071 
O      10.04134924      14.52040040       3.29178917 
O       2.11464505      14.58202309       1.36984400 
O       9.40654826       7.32082274      -5.60245205 
O       4.41661883      16.56475485       4.28634599 
O       1.25085851       8.08969077       1.01723735 
O       4.44595642       8.06661864       3.89617305 
O       9.50079472      16.07385302       0.61305180 
O       2.72722059      17.62514660      -5.25875145 
O       8.75857077      16.05063273       4.80069565 
O       3.44882780      15.65635337      -0.67511370 
O       7.62761323       6.62101234       1.55072206 
O       6.23439547       6.53936030      -2.22021590 
O       7.02281660      15.48739238       1.19784553 
O       6.19259047      16.03861511      -3.01152634 
O      10.42558481       7.26798440      -2.49136631 
O       5.56228750      14.24529176      -0.58659294 
O      10.78574282       7.44938635       2.67925597 
O       3.94404771      10.19417562      -2.24720394 
H      10.31376967       9.05665629       2.24626201 
H       8.84106949      10.07431698       2.33659785 
H       3.02170771      15.81550342       4.80460627 
H       1.32093215      15.69389320       4.36907755 
H       2.51465010      12.91724323       4.69424637 
H       1.99579185      14.36804499       5.49375905 
H       1.82504753      12.72882121      -0.94506287 
H       2.66343357      11.90887171       0.19867641 
H      -0.32994199       5.41988591      -1.02386265 
H       0.88499597       6.18417655      -1.46824980 
H      10.99106358      13.47062924      -0.68506223 
H      11.06123248      14.87535660      -1.71846066 
H       7.06134070      11.12346372       3.38483440 
H       6.63492970       9.74897883       2.95090380 
H       0.32714317      15.36010938      -4.42545609 
H      -0.25856075      16.50900603      -5.16074783 
H      10.87046409      16.15525106      -3.62413363 
H       9.71786321      16.86006219      -2.94358528 
H       4.96020025       6.95227727       5.01376357 
H       5.55334440       5.56943139       5.47513201 
H       7.28569067      10.42405020       0.04733760 
H       8.96108688       9.71204226       0.27593734 
H       9.80189655       5.49465865       0.83684084 
H      10.37166166       6.59423597      -0.17759187 
H       6.31387789      14.11608785       4.44441651 
H       7.13452591      15.45593809       4.44570241 
H       1.99253741       9.59414158      -5.55133353 
H       3.33010689       9.70505712      -5.09534153 
H       4.26829046      12.53044009       2.45353014 
H       3.20307790      13.67071114       2.49713434 
H       9.65690200       6.61233383       3.36507492 
H       8.90737540       6.69536174       4.67804825 
H       5.71347342      17.47956995       1.07216595 
H       4.45551865      17.05247102      -0.09583399 
H       5.33765177      12.13816102       4.32558448 
H       6.38695726      11.94114834       5.45661081 
H       8.83339642      12.66215229       6.66974956 
H       9.81893606      13.40924468       5.64547415 
H       3.43661968       7.03911525       2.90221949 
H       3.21524369       5.95800621       1.71892633 
H       2.43850150       8.03333340      -2.11639134 
H       0.96283793       8.37751026      -2.07463925 
H       1.45208872       7.42451502      -4.24262537 
H       1.95828377       6.98032367      -5.63393809 
H       6.23227876      12.43577028      -4.76513495 
H       7.37234873      11.06578340      -4.70756047 
H      -0.52209100      11.87687977       3.40271001 
H      10.60241996      11.20565552       3.01522529 
H       9.27822808       7.40567631      -1.44460087 
H       8.18919196       8.45614599      -0.81128158 
H      -0.50674010       8.83440186       5.93641578 
H      -0.37259367      10.47444375       5.56096455 
H       3.10521187      10.24778127       5.01151985 
H       2.76362269      10.54263881       3.73212811 
H       0.15447741      16.33934123       2.96979542 
H       0.78193341      15.05436667       2.22630144 
H      -0.33212114       6.45934870      -5.54329003 
H      10.66756168       6.26799822       6.63392426 
H       1.86772567      14.68591645      -3.06875156 
H       1.41593005      13.09781331      -3.34138366 
H       5.09883939       8.43263465       1.08253782 
H       6.61021713       7.63228057       1.48497709 
H       6.30154806       6.58778001      -5.15662025 
H       6.73388584       6.54089491      -3.81822525 
H       3.17659788      11.79470384      -4.04910526 
H       2.64667982      12.75518535      -5.35760175 
H      10.14189291       9.68410700       5.32204104 
H       8.69792706      10.26089428       4.83934676 
H       2.62772998      16.75560261      -3.61147571 
H       1.21068337      16.93552286      -2.83564900 
H       4.47770176      13.87099942      -4.32240942 
H       5.69415846      14.88168027      -4.32286451 
H       4.73789290       7.48224825      -0.70385861 
H       4.14891338       8.74401839      -1.21795427 
H       0.03023168       9.09168782      -0.08170496 
H      -0.24802853      10.12072582      -1.13355050 
H       0.07392288      11.82871935       0.02531938 
H      -1.13125917      11.63674974       0.60157924 
H       7.82436132      17.52775153      -4.81747057 
H       8.89329928      16.31683003      -5.59081015 
H       1.43613403       5.85259411       3.47150834 
H       0.30544109       5.29653470       4.35212272 
H      -1.01665526      12.49380832       5.93170611 
H       0.54664535      12.62164537       5.38644191 
H       5.60382791      10.06590306      -4.99315211 
H       5.57927408       8.50779369      -4.38342355 
H       1.37104523       8.96780743       2.52242901 
H       0.35502499       9.55926880       3.89384467 
H       8.08333006       9.14275342      -3.73339814 
H       8.41821457      10.08415968      -2.34219125 
H      11.09372396      14.78642308       3.38098199 
H      10.17925282      13.54833362       3.21952473 
H       2.61043118      15.17375963       0.73030159 
H       2.01457764      13.84285249       0.79496176 
H       8.39163929       7.09568430      -5.54672969 
H       9.32547831       8.36819674       6.66546323 
H       4.31200050      16.89232612       3.21384137 
H       5.23853688      15.91575604       4.24259891 
H       2.04782055       7.83933703       0.47430153 
H       1.41102986       7.28957483       1.77798251 
H       4.02462552       8.96018728       4.30840210 
H       4.87308710       8.28527467       3.10087262 
H       9.75405893      15.75422470       1.43952077 
H       9.84640036      15.60636729      -0.10033200 
H       2.41019582      16.89414120       6.43140815 
H       3.63022975       5.61594606      -5.55106894 
H       9.28404374      15.43699883       4.26040572 
H       8.92653161      17.05813322       4.70285079 
H       3.13726943      15.80044833      -1.59388176 
H       4.28249358      15.07368164      -0.78292297 
H       7.90982344       6.29112327       2.62932810 
H       8.62654105       6.89253317       1.06348744 
H       6.95915658       6.66376986      -1.61774765 
H       6.05526899       5.62843465      -1.99362222 
H       6.99895070      15.37048126       2.25847542 
H       7.93368933      15.90626260       0.94024207 
H       6.95047807      15.88319047      -3.75461285 
H       6.09548645      15.39027778      -2.29660263 
H      10.71134051       6.29609753      -2.55931266 
H      11.22167901       7.94898255      -2.10633697 
H       5.53630489      13.25139112      -0.41222905 
H       6.35727042      14.41753894       0.11324392 
H      10.62011036       7.16209604       1.82274032 
H      -0.67761142       6.95905074       2.95122130 
H       4.04843321      10.65614732      -1.56461826 
H       4.59753394      10.42024012      -3.17326406 
